
     Program PWSCF v.6.2 starts on 18Jun2019 at 12:31:18 

     This program is part of the open-source Quantum ESPRESSO suite
     for quantum simulation of materials; please cite
         "P. Giannozzi et al., J. Phys.:Condens. Matter 21 395502 (2009);
         "P. Giannozzi et al., J. Phys.:Condens. Matter 29 465901 (2017);
          URL http://www.quantum-espresso.org", 
     in publications or presentations arising from this work. More details at
     http://www.quantum-espresso.org/quote

     Parallel version (MPI & OpenMP), running on     128 processor cores
     Number of MPI processes:                64
     Threads/MPI process:                     2

     MPI processes distributed on     2 nodes
     R & G space division:  proc/nbgrp/npool/nimage =      64
     Reading input from scf.in
Warning: card &IONS ignored
Warning: card  / ignored
Warning: card &CELL ignored
Warning: card  / ignored

     Current dimensions of program PWSCF are:
     Max number of different atomic species (ntypx) = 20
     Max number of k-points (npk) =  40000
     Max angular momentum in pseudopotentials (lmaxx) =  3

     Subspace diagonalization in iterative solution of the eigenvalue problem:
     one sub-group per band group will be used
     scalapack distributed-memory algorithm (size of sub-group:  5*  5 procs)

 
     Parallelization info
     --------------------
     sticks:   dense  smooth     PW     G-vecs:    dense   smooth      PW
     Min         252     252     67                55162    55162    7571
     Max         253     253     68                55179    55179    7584
     Sum       16177   16177   4317              3530959  3530959  484893
 

     Title: 
     GNR                                                                        


     bravais-lattice index     =            8
     lattice parameter (alat)  =      42.0000  a.u.
     unit-cell volume          =   14224.8960 (a.u.)^3
     number of atoms/cell      =           18
     number of atomic types    =            2
     number of electrons       =        60.00
     number of Kohn-Sham states=           30
     kinetic-energy cutoff     =     150.0000  Ry
     charge density cutoff     =     600.0000  Ry
     convergence threshold     =      1.0E-08
     mixing beta               =       0.0500
     number of iterations used =            8  plain     mixing
     Exchange-correlation      = LDA ( 1  1  0  0 0 0)

     celldm(1)=  42.000000  celldm(2)=   0.192000  celldm(3)=   1.000000
     celldm(4)=   0.000000  celldm(5)=   0.000000  celldm(6)=   0.000000

     crystal axes: (cart. coord. in units of alat)
               a(1) = (   1.000000   0.000000   0.000000 )  
               a(2) = (   0.000000   0.192000   0.000000 )  
               a(3) = (   0.000000   0.000000   1.000000 )  

     reciprocal axes: (cart. coord. in units 2 pi/alat)
               b(1) = (  1.000000  0.000000  0.000000 )  
               b(2) = (  0.000000  5.208333  0.000000 )  
               b(3) = (  0.000000  0.000000  1.000000 )  


     PseudoPot. # 1 for H  read from file:
     ./H.pz-rrkjus_psl.1.0.0.UPF
     MD5 check sum: 3e8167ece7ffd2ca4a851f90e812e756
     Pseudo is Ultrasoft, Zval =  1.0
     Generated using "atomic" code by A. Dal Corso v.6.3MaX
     Using radial grid of  929 points,  2 beta functions with: 
                l(1) =   0
                l(2) =   0
     Q(r) pseudized with 0 coefficients 


     PseudoPot. # 2 for C  read from file:
     ./C.pz-n-rrkjus_psl.0.1.UPF
     MD5 check sum: a3cecbabebb5b3a1aff122f23eb09bb0
     Pseudo is Ultrasoft + core correction, Zval =  4.0
     Generated using "atomic" code by A. Dal Corso v.5.0.2 svn rev. 9415
     Using radial grid of 1073 points,  4 beta functions with: 
                l(1) =   0
                l(2) =   0
                l(3) =   1
                l(4) =   1
     Q(r) pseudized with 0 coefficients 


     atomic species   valence    mass     pseudopotential
       H               1.00     1.00790     H ( 1.00)
       C               4.00    12.01100     C ( 1.00)

     No symmetry found



   Cartesian axes

     site n.     atom                  positions (alat units)
         1          C    tau(   1) = (   0.0565568   0.0961961   0.0083463  )
         2          H    tau(   2) = (   0.0144294   0.0719041   0.0088007  )
         3          C    tau(   3) = (   0.0565748   0.1595559   0.0077974  )
         4          H    tau(   4) = (   0.0144339   0.1838704   0.0081753  )
         5          C    tau(   5) = (   0.1664669   0.0959756   0.0082383  )
         6          C    tau(   6) = (   0.1113634   0.0644172   0.0086208  )
         7          C    tau(   7) = (   0.1664669   0.1597448   0.0070820  )
         8          C    tau(   8) = (   0.1114129   0.1913213   0.0069200  )
         9          C    tau(   9) = (   0.2764894   0.0959756   0.0093092  )
        10          C    tau(  10) = (   0.2214624   0.0643407   0.0092822  )
        11          C    tau(  11) = (   0.2764759   0.1597448   0.0075814  )
        12          C    tau(  12) = (   0.2214849   0.1913708   0.0063981  )
        13          C    tau(  13) = (   0.3864085   0.0962276   0.0112979  )
        14          C    tau(  14) = (   0.3315435   0.0644397   0.0112619  )
        15          C    tau(  15) = (   0.3864265   0.1595649   0.0088187  )
        16          C    tau(  16) = (   0.3315794   0.1912898   0.0071720  )
        17          H    tau(  17) = (   0.4284954   0.0719851   0.0131111  )
        18          H    tau(  18) = (   0.4285359   0.1838209   0.0082293  )

     number of k points=    17
                       cart. coord. in units 2pi/alat
        k(    1) = (   0.0000000   0.0000000   0.0000000), wk =   0.0625000
        k(    2) = (   0.0000000   0.1627604   0.0000000), wk =   0.1250000
        k(    3) = (   0.0000000   0.3255208   0.0000000), wk =   0.1250000
        k(    4) = (   0.0000000   0.4882812   0.0000000), wk =   0.1250000
        k(    5) = (   0.0000000   0.6510417   0.0000000), wk =   0.1250000
        k(    6) = (   0.0000000   0.8138021   0.0000000), wk =   0.1250000
        k(    7) = (   0.0000000   0.9765625   0.0000000), wk =   0.1250000
        k(    8) = (   0.0000000   1.1393229   0.0000000), wk =   0.1250000
        k(    9) = (   0.0000000   1.3020833   0.0000000), wk =   0.1250000
        k(   10) = (   0.0000000   1.4648438   0.0000000), wk =   0.1250000
        k(   11) = (   0.0000000   1.6276042   0.0000000), wk =   0.1250000
        k(   12) = (   0.0000000   1.7903646   0.0000000), wk =   0.1250000
        k(   13) = (   0.0000000   1.9531250   0.0000000), wk =   0.1250000
        k(   14) = (   0.0000000   2.1158854   0.0000000), wk =   0.1250000
        k(   15) = (   0.0000000   2.2786458   0.0000000), wk =   0.1250000
        k(   16) = (   0.0000000   2.4414062   0.0000000), wk =   0.1250000
        k(   17) = (   0.0000000  -2.6041667   0.0000000), wk =   0.0625000

     Dense  grid:  3530959 G-vectors     FFT dimensions: ( 360,  64, 360)

     Estimated max dynamical RAM per process >     191.45 MB

     Estimated total dynamical RAM >      11.97 GB

     Initial potential from superposition of free atoms
     Check: negative starting charge=   -0.000195

     starting charge   59.99947, renormalised to   60.00000

     negative rho (up, down):  1.947E-04 0.000E+00
     Starting wfc are   60 randomized atomic wfcs

     total cpu time spent up to now is       24.8 secs

     Self-consistent Calculation

     iteration #  1     ecut=   150.00 Ry     beta= 0.05
     Davidson diagonalization with overlap
     ethr =  1.00E-02,  avg # of iterations =  3.0

     negative rho (up, down):  1.750E-04 0.000E+00

     total cpu time spent up to now is       73.6 secs

     total energy              =    -172.81955036 Ry
     Harris-Foulkes estimate   =    -172.96802780 Ry
     estimated scf accuracy    <       2.07860669 Ry

     iteration #  2     ecut=   150.00 Ry     beta= 0.05
     Davidson diagonalization with overlap
     ethr =  3.46E-03,  avg # of iterations =  1.0

     negative rho (up, down):  9.870E-05 0.000E+00

     total cpu time spent up to now is      101.3 secs

     total energy              =    -171.56977208 Ry
     Harris-Foulkes estimate   =    -172.82703434 Ry
     estimated scf accuracy    <       1.82154991 Ry

     iteration #  3     ecut=   150.00 Ry     beta= 0.05
     Davidson diagonalization with overlap
     ethr =  3.04E-03,  avg # of iterations =  3.1

     negative rho (up, down):  9.518E-05 0.000E+00

     total cpu time spent up to now is      146.9 secs

     total energy              =    -172.20489149 Ry
     Harris-Foulkes estimate   =    -172.15781760 Ry
     estimated scf accuracy    <       0.34752930 Ry

     iteration #  4     ecut=   150.00 Ry     beta= 0.05
     Davidson diagonalization with overlap
     ethr =  5.79E-04,  avg # of iterations =  1.5

     negative rho (up, down):  9.411E-05 0.000E+00

     total cpu time spent up to now is      174.7 secs

     total energy              =    -172.26277772 Ry
     Harris-Foulkes estimate   =    -172.20935452 Ry
     estimated scf accuracy    <       0.42972854 Ry

     iteration #  5     ecut=   150.00 Ry     beta= 0.05
     Davidson diagonalization with overlap
     ethr =  5.79E-04,  avg # of iterations =  1.0

     negative rho (up, down):  1.514E-04 0.000E+00

     total cpu time spent up to now is      202.3 secs

     total energy              =    -171.84400973 Ry
     Harris-Foulkes estimate   =    -172.26629691 Ry
     estimated scf accuracy    <       0.52847630 Ry

     iteration #  6     ecut=   150.00 Ry     beta= 0.05
     Davidson diagonalization with overlap
     ethr =  5.79E-04,  avg # of iterations =  4.0

     negative rho (up, down):  1.048E-04 0.000E+00

     total cpu time spent up to now is      253.6 secs

     total energy              =    -171.93118679 Ry
     Harris-Foulkes estimate   =    -172.26101265 Ry
     estimated scf accuracy    <       0.57954433 Ry

     iteration #  7     ecut=   150.00 Ry     beta= 0.05
     Davidson diagonalization with overlap
     ethr =  5.79E-04,  avg # of iterations =  3.1

     negative rho (up, down):  1.052E-04 0.000E+00

     total cpu time spent up to now is      291.9 secs

     total energy              =    -172.02998029 Ry
     Harris-Foulkes estimate   =    -172.02922808 Ry
     estimated scf accuracy    <       0.00966527 Ry

     iteration #  8     ecut=   150.00 Ry     beta= 0.05
     Davidson diagonalization with overlap
     ethr =  1.61E-05,  avg # of iterations =  4.0

     negative rho (up, down):  1.061E-04 0.000E+00

     total cpu time spent up to now is      335.7 secs

     total energy              =    -172.03693409 Ry
     Harris-Foulkes estimate   =    -172.03663859 Ry
     estimated scf accuracy    <       0.01028357 Ry

     iteration #  9     ecut=   150.00 Ry     beta= 0.05
     Davidson diagonalization with overlap
     ethr =  1.61E-05,  avg # of iterations =  1.0

     negative rho (up, down):  1.048E-04 0.000E+00

     total cpu time spent up to now is      363.4 secs

     total energy              =    -172.03211798 Ry
     Harris-Foulkes estimate   =    -172.03706038 Ry
     estimated scf accuracy    <       0.01111067 Ry

     iteration # 10     ecut=   150.00 Ry     beta= 0.05
     Davidson diagonalization with overlap
     ethr =  1.61E-05,  avg # of iterations =  4.8

     negative rho (up, down):  1.052E-04 0.000E+00

     total cpu time spent up to now is      405.8 secs

     total energy              =    -172.04129382 Ry
     Harris-Foulkes estimate   =    -172.03887095 Ry
     estimated scf accuracy    <       0.01961110 Ry

     iteration # 11     ecut=   150.00 Ry     beta= 0.05
     Davidson diagonalization with overlap
     ethr =  1.61E-05,  avg # of iterations =  1.2

     negative rho (up, down):  1.039E-04 0.000E+00

     total cpu time spent up to now is      433.8 secs

     total energy              =    -172.04005190 Ry
     Harris-Foulkes estimate   =    -172.04157621 Ry
     estimated scf accuracy    <       0.02383280 Ry

     iteration # 12     ecut=   150.00 Ry     beta= 0.05
     Davidson diagonalization with overlap
     ethr =  1.61E-05,  avg # of iterations =  1.0

     negative rho (up, down):  1.038E-04 0.000E+00

     total cpu time spent up to now is      461.5 secs

     total energy              =    -172.04028113 Ry
     Harris-Foulkes estimate   =    -172.04021045 Ry
     estimated scf accuracy    <       0.02224952 Ry

     iteration # 13     ecut=   150.00 Ry     beta= 0.05
     Davidson diagonalization with overlap
     ethr =  1.61E-05,  avg # of iterations =  1.0

     negative rho (up, down):  1.051E-04 0.000E+00

     total cpu time spent up to now is      489.2 secs

     total energy              =    -172.04281330 Ry
     Harris-Foulkes estimate   =    -172.04035050 Ry
     estimated scf accuracy    <       0.02263958 Ry

     iteration # 14     ecut=   150.00 Ry     beta= 0.05
     Davidson diagonalization with overlap
     ethr =  1.61E-05,  avg # of iterations =  4.6

     negative rho (up, down):  1.071E-04 0.000E+00

     total cpu time spent up to now is      529.6 secs

     total energy              =    -172.04275064 Ry
     Harris-Foulkes estimate   =    -172.04589184 Ry
     estimated scf accuracy    <       0.05093581 Ry

     iteration # 15     ecut=   150.00 Ry     beta= 0.05
     Davidson diagonalization with overlap
     ethr =  1.61E-05,  avg # of iterations =  1.1

     negative rho (up, down):  1.089E-04 0.000E+00

     total cpu time spent up to now is      557.3 secs

     total energy              =    -172.03900091 Ry
     Harris-Foulkes estimate   =    -172.04288858 Ry
     estimated scf accuracy    <       0.04609013 Ry

     iteration # 16     ecut=   150.00 Ry     beta= 0.05
     Davidson diagonalization with overlap
     ethr =  1.61E-05,  avg # of iterations =  4.4

     negative rho (up, down):  1.092E-04 0.000E+00

     total cpu time spent up to now is      593.0 secs

     total energy              =    -172.03986025 Ry
     Harris-Foulkes estimate   =    -172.04068389 Ry
     estimated scf accuracy    <       0.03328222 Ry

     iteration # 17     ecut=   150.00 Ry     beta= 0.05
     Davidson diagonalization with overlap
     ethr =  1.61E-05,  avg # of iterations =  1.0

     negative rho (up, down):  1.092E-04 0.000E+00

     total cpu time spent up to now is      620.7 secs

     total energy              =    -172.04005189 Ry
     Harris-Foulkes estimate   =    -172.04004752 Ry
     estimated scf accuracy    <       0.03123713 Ry

     iteration # 18     ecut=   150.00 Ry     beta= 0.05
     Davidson diagonalization with overlap
     ethr =  1.61E-05,  avg # of iterations =  1.0

     negative rho (up, down):  1.080E-04 0.000E+00

     total cpu time spent up to now is      648.5 secs

     total energy              =    -172.03912847 Ry
     Harris-Foulkes estimate   =    -172.04015785 Ry
     estimated scf accuracy    <       0.03130861 Ry

     iteration # 19     ecut=   150.00 Ry     beta= 0.05
     Davidson diagonalization with overlap
     ethr =  1.61E-05,  avg # of iterations =  1.0

     negative rho (up, down):  1.073E-04 0.000E+00

     total cpu time spent up to now is      676.3 secs

     total energy              =    -172.03388620 Ry
     Harris-Foulkes estimate   =    -172.03927497 Ry
     estimated scf accuracy    <       0.02877826 Ry

     iteration # 20     ecut=   150.00 Ry     beta= 0.05
     Davidson diagonalization with overlap
     ethr =  1.61E-05,  avg # of iterations =  4.5

     negative rho (up, down):  1.068E-04 0.000E+00

     total cpu time spent up to now is      707.8 secs

     total energy              =    -172.03472716 Ry
     Harris-Foulkes estimate   =    -172.03466463 Ry
     estimated scf accuracy    <       0.01506988 Ry

     iteration # 21     ecut=   150.00 Ry     beta= 0.05
     Davidson diagonalization with overlap
     ethr =  1.61E-05,  avg # of iterations =  2.9

     negative rho (up, down):  1.066E-04 0.000E+00

     total cpu time spent up to now is      737.3 secs

     total energy              =    -172.03013334 Ry
     Harris-Foulkes estimate   =    -172.03521577 Ry
     estimated scf accuracy    <       0.01331660 Ry

     iteration # 22     ecut=   150.00 Ry     beta= 0.05
     Davidson diagonalization with overlap
     ethr =  1.61E-05,  avg # of iterations =  4.9

     negative rho (up, down):  1.083E-04 0.000E+00

     total cpu time spent up to now is      779.8 secs

     total energy              =    -172.03409279 Ry
     Harris-Foulkes estimate   =    -172.03485128 Ry
     estimated scf accuracy    <       0.00404350 Ry

     iteration # 23     ecut=   150.00 Ry     beta= 0.05
     Davidson diagonalization with overlap
     ethr =  6.74E-06,  avg # of iterations =  4.2

     negative rho (up, down):  1.077E-04 0.000E+00

     total cpu time spent up to now is      813.1 secs

     total energy              =    -172.03430263 Ry
     Harris-Foulkes estimate   =    -172.03459660 Ry
     estimated scf accuracy    <       0.00237358 Ry

     iteration # 24     ecut=   150.00 Ry     beta= 0.05
     Davidson diagonalization with overlap
     ethr =  3.96E-06,  avg # of iterations =  5.0

     negative rho (up, down):  1.070E-04 0.000E+00

     total cpu time spent up to now is      847.8 secs

     total energy              =    -172.03418683 Ry
     Harris-Foulkes estimate   =    -172.03467022 Ry
     estimated scf accuracy    <       0.00224507 Ry

     iteration # 25     ecut=   150.00 Ry     beta= 0.05
     Davidson diagonalization with overlap
     ethr =  3.74E-06,  avg # of iterations =  1.0

     negative rho (up, down):  1.071E-04 0.000E+00

     total cpu time spent up to now is      875.5 secs

     total energy              =    -172.03448771 Ry
     Harris-Foulkes estimate   =    -172.03422941 Ry
     estimated scf accuracy    <       0.00157776 Ry

     iteration # 26     ecut=   150.00 Ry     beta= 0.05
     Davidson diagonalization with overlap
     ethr =  2.63E-06,  avg # of iterations =  1.4

     negative rho (up, down):  1.067E-04 0.000E+00

     total cpu time spent up to now is      903.7 secs

     total energy              =    -172.03426419 Ry
     Harris-Foulkes estimate   =    -172.03452488 Ry
     estimated scf accuracy    <       0.00195686 Ry

     iteration # 27     ecut=   150.00 Ry     beta= 0.05
     Davidson diagonalization with overlap
     ethr =  2.63E-06,  avg # of iterations =  5.3

     negative rho (up, down):  1.067E-04 0.000E+00

     total cpu time spent up to now is      946.5 secs

     total energy              =    -172.03492210 Ry
     Harris-Foulkes estimate   =    -172.03490239 Ry
     estimated scf accuracy    <       0.00470826 Ry

     iteration # 28     ecut=   150.00 Ry     beta= 0.05
     Davidson diagonalization with overlap
     ethr =  2.63E-06,  avg # of iterations =  1.0

     negative rho (up, down):  1.076E-04 0.000E+00

     total cpu time spent up to now is      974.2 secs

     total energy              =    -172.03414060 Ry
     Harris-Foulkes estimate   =    -172.03493691 Ry
     estimated scf accuracy    <       0.00478748 Ry

     iteration # 29     ecut=   150.00 Ry     beta= 0.05
     Davidson diagonalization with overlap
     ethr =  2.63E-06,  avg # of iterations =  3.6

     negative rho (up, down):  1.080E-04 0.000E+00

     total cpu time spent up to now is     1004.8 secs

     total energy              =    -172.03410888 Ry
     Harris-Foulkes estimate   =    -172.03422071 Ry
     estimated scf accuracy    <       0.00301567 Ry

     iteration # 30     ecut=   150.00 Ry     beta= 0.05
     Davidson diagonalization with overlap
     ethr =  2.63E-06,  avg # of iterations =  1.0

     negative rho (up, down):  1.082E-04 0.000E+00

     total cpu time spent up to now is     1032.5 secs

     total energy              =    -172.03359245 Ry
     Harris-Foulkes estimate   =    -172.03413259 Ry
     estimated scf accuracy    <       0.00278711 Ry

     iteration # 31     ecut=   150.00 Ry     beta= 0.05
     Davidson diagonalization with overlap
     ethr =  2.63E-06,  avg # of iterations =  5.8

     negative rho (up, down):  1.095E-04 0.000E+00

     total cpu time spent up to now is     1072.3 secs

     total energy              =    -172.03366586 Ry
     Harris-Foulkes estimate   =    -172.03408314 Ry
     estimated scf accuracy    <       0.00083978 Ry

     iteration # 32     ecut=   150.00 Ry     beta= 0.05
     Davidson diagonalization with overlap
     ethr =  1.40E-06,  avg # of iterations =  4.1

     negative rho (up, down):  1.083E-04 0.000E+00

     total cpu time spent up to now is     1116.1 secs

     total energy              =    -172.03413084 Ry
     Harris-Foulkes estimate   =    -172.03398800 Ry
     estimated scf accuracy    <       0.00045643 Ry

     iteration # 33     ecut=   150.00 Ry     beta= 0.05
     Davidson diagonalization with overlap
     ethr =  7.61E-07,  avg # of iterations =  5.2

     negative rho (up, down):  1.085E-04 0.000E+00

     total cpu time spent up to now is     1165.3 secs

     total energy              =    -172.03442997 Ry
     Harris-Foulkes estimate   =    -172.03453446 Ry
     estimated scf accuracy    <       0.00308709 Ry

     iteration # 34     ecut=   150.00 Ry     beta= 0.05
     Davidson diagonalization with overlap
     ethr =  7.61E-07,  avg # of iterations =  1.0

     negative rho (up, down):  1.092E-04 0.000E+00

     total cpu time spent up to now is     1193.0 secs

     total energy              =    -172.03302772 Ry
     Harris-Foulkes estimate   =    -172.03443352 Ry
     estimated scf accuracy    <       0.00291461 Ry

     iteration # 35     ecut=   150.00 Ry     beta= 0.05
     Davidson diagonalization with overlap
     ethr =  7.61E-07,  avg # of iterations =  6.1

     negative rho (up, down):  1.090E-04 0.000E+00

     total cpu time spent up to now is     1247.2 secs

     total energy              =    -172.03368836 Ry
     Harris-Foulkes estimate   =    -172.03406783 Ry
     estimated scf accuracy    <       0.00088792 Ry

     iteration # 36     ecut=   150.00 Ry     beta= 0.05
     Davidson diagonalization with overlap
     ethr =  7.61E-07,  avg # of iterations =  5.4

     negative rho (up, down):  1.095E-04 0.000E+00

     total cpu time spent up to now is     1289.1 secs

     total energy              =    -172.03384327 Ry
     Harris-Foulkes estimate   =    -172.03386228 Ry
     estimated scf accuracy    <       0.00006492 Ry

     iteration # 37     ecut=   150.00 Ry     beta= 0.05
     Davidson diagonalization with overlap
     ethr =  1.08E-07,  avg # of iterations =  4.8

     negative rho (up, down):  1.092E-04 0.000E+00

     total cpu time spent up to now is     1329.9 secs

     total energy              =    -172.03384110 Ry
     Harris-Foulkes estimate   =    -172.03386337 Ry
     estimated scf accuracy    <       0.00006861 Ry

     iteration # 38     ecut=   150.00 Ry     beta= 0.05
     Davidson diagonalization with overlap
     ethr =  1.08E-07,  avg # of iterations =  4.8

     negative rho (up, down):  1.094E-04 0.000E+00

     total cpu time spent up to now is     1363.5 secs

     total energy              =    -172.03384550 Ry
     Harris-Foulkes estimate   =    -172.03385085 Ry
     estimated scf accuracy    <       0.00002733 Ry

     iteration # 39     ecut=   150.00 Ry     beta= 0.05
     Davidson diagonalization with overlap
     ethr =  4.56E-08,  avg # of iterations =  4.6

     negative rho (up, down):  1.100E-04 0.000E+00

     total cpu time spent up to now is     1410.2 secs

     total energy              =    -172.03383137 Ry
     Harris-Foulkes estimate   =    -172.03385928 Ry
     estimated scf accuracy    <       0.00004891 Ry

     iteration # 40     ecut=   150.00 Ry     beta= 0.05
     Davidson diagonalization with overlap
     ethr =  4.56E-08,  avg # of iterations =  5.5

     negative rho (up, down):  1.100E-04 0.000E+00

     total cpu time spent up to now is     1458.8 secs

     total energy              =    -172.03382716 Ry
     Harris-Foulkes estimate   =    -172.03385632 Ry
     estimated scf accuracy    <       0.00003940 Ry

     iteration # 41     ecut=   150.00 Ry     beta= 0.05
     Davidson diagonalization with overlap
     ethr =  4.56E-08,  avg # of iterations =  6.2

     negative rho (up, down):  1.100E-04 0.000E+00

     total cpu time spent up to now is     1510.3 secs

     total energy              =    -172.03382989 Ry
     Harris-Foulkes estimate   =    -172.03387128 Ry
     estimated scf accuracy    <       0.00010716 Ry

     iteration # 42     ecut=   150.00 Ry     beta= 0.05
     Davidson diagonalization with overlap
     ethr =  4.56E-08,  avg # of iterations =  5.6

     negative rho (up, down):  1.100E-04 0.000E+00

     total cpu time spent up to now is     1553.4 secs

     total energy              =    -172.03384771 Ry
     Harris-Foulkes estimate   =    -172.03384775 Ry
     estimated scf accuracy    <       0.00000090 Ry

     iteration # 43     ecut=   150.00 Ry     beta= 0.05
     Davidson diagonalization with overlap
     ethr =  1.49E-09,  avg # of iterations =  4.9

     negative rho (up, down):  1.100E-04 0.000E+00

     total cpu time spent up to now is     1600.7 secs

     total energy              =    -172.03384840 Ry
     Harris-Foulkes estimate   =    -172.03384831 Ry
     estimated scf accuracy    <       0.00000113 Ry

     iteration # 44     ecut=   150.00 Ry     beta= 0.05
     Davidson diagonalization with overlap
     ethr =  1.49E-09,  avg # of iterations =  1.0

     negative rho (up, down):  1.100E-04 0.000E+00

     total cpu time spent up to now is     1628.4 secs

     total energy              =    -172.03384856 Ry
     Harris-Foulkes estimate   =    -172.03384842 Ry
     estimated scf accuracy    <       0.00000128 Ry

     iteration # 45     ecut=   150.00 Ry     beta= 0.05
     Davidson diagonalization with overlap
     ethr =  1.49E-09,  avg # of iterations =  1.0

     negative rho (up, down):  1.100E-04 0.000E+00

     total cpu time spent up to now is     1656.1 secs

     total energy              =    -172.03384807 Ry
     Harris-Foulkes estimate   =    -172.03384858 Ry
     estimated scf accuracy    <       0.00000121 Ry

     iteration # 46     ecut=   150.00 Ry     beta= 0.05
     Davidson diagonalization with overlap
     ethr =  1.49E-09,  avg # of iterations =  5.5

     negative rho (up, down):  1.100E-04 0.000E+00

     total cpu time spent up to now is     1696.6 secs

     total energy              =    -172.03384827 Ry
     Harris-Foulkes estimate   =    -172.03384833 Ry
     estimated scf accuracy    <       0.00000030 Ry

     iteration # 47     ecut=   150.00 Ry     beta= 0.05
     Davidson diagonalization with overlap
     ethr =  4.92E-10,  avg # of iterations =  1.5

     negative rho (up, down):  1.101E-04 0.000E+00

     total cpu time spent up to now is     1724.8 secs

     total energy              =    -172.03384821 Ry
     Harris-Foulkes estimate   =    -172.03384828 Ry
     estimated scf accuracy    <       0.00000024 Ry

     iteration # 48     ecut=   150.00 Ry     beta= 0.05
     Davidson diagonalization with overlap
     ethr =  4.00E-10,  avg # of iterations =  5.6

     negative rho (up, down):  1.101E-04 0.000E+00

     total cpu time spent up to now is     1773.1 secs

     total energy              =    -172.03384828 Ry
     Harris-Foulkes estimate   =    -172.03384841 Ry
     estimated scf accuracy    <       0.00000075 Ry

     iteration # 49     ecut=   150.00 Ry     beta= 0.05
     Davidson diagonalization with overlap
     ethr =  4.00E-10,  avg # of iterations =  1.3

     negative rho (up, down):  1.101E-04 0.000E+00

     total cpu time spent up to now is     1800.9 secs

     total energy              =    -172.03384834 Ry
     Harris-Foulkes estimate   =    -172.03384828 Ry
     estimated scf accuracy    <       0.00000060 Ry

     iteration # 50     ecut=   150.00 Ry     beta= 0.05
     Davidson diagonalization with overlap
     ethr =  4.00E-10,  avg # of iterations =  3.9

     negative rho (up, down):  1.101E-04 0.000E+00

     total cpu time spent up to now is     1833.2 secs

     total energy              =    -172.03384827 Ry
     Harris-Foulkes estimate   =    -172.03384836 Ry
     estimated scf accuracy    <       0.00000041 Ry

     iteration # 51     ecut=   150.00 Ry     beta= 0.05
     Davidson diagonalization with overlap
     ethr =  4.00E-10,  avg # of iterations =  4.6

     negative rho (up, down):  1.101E-04 0.000E+00

     total cpu time spent up to now is     1865.7 secs

     total energy              =    -172.03384832 Ry
     Harris-Foulkes estimate   =    -172.03384829 Ry
     estimated scf accuracy    <       0.00000014 Ry

     iteration # 52     ecut=   150.00 Ry     beta= 0.05
     Davidson diagonalization with overlap
     ethr =  2.33E-10,  avg # of iterations =  2.0

     negative rho (up, down):  1.101E-04 0.000E+00

     total cpu time spent up to now is     1894.3 secs

     total energy              =    -172.03384830 Ry
     Harris-Foulkes estimate   =    -172.03384832 Ry
     estimated scf accuracy    <       0.00000012 Ry

     iteration # 53     ecut=   150.00 Ry     beta= 0.05
     Davidson diagonalization with overlap
     ethr =  2.00E-10,  avg # of iterations =  4.4

     negative rho (up, down):  1.101E-04 0.000E+00

     total cpu time spent up to now is     1925.9 secs

     total energy              =    -172.03384831 Ry
     Harris-Foulkes estimate   =    -172.03384831 Ry
     estimated scf accuracy    <       0.00000006 Ry

     iteration # 54     ecut=   150.00 Ry     beta= 0.05
     Davidson diagonalization with overlap
     ethr =  9.53E-11,  avg # of iterations =  4.9

     negative rho (up, down):  1.101E-04 0.000E+00

     total cpu time spent up to now is     1960.0 secs

     total energy              =    -172.03384832 Ry
     Harris-Foulkes estimate   =    -172.03384832 Ry
     estimated scf accuracy    <       0.00000004 Ry

     iteration # 55     ecut=   150.00 Ry     beta= 0.05
     Davidson diagonalization with overlap
     ethr =  6.00E-11,  avg # of iterations =  3.2

     negative rho (up, down):  1.100E-04 0.000E+00

     total cpu time spent up to now is     1990.4 secs

     total energy              =    -172.03384833 Ry
     Harris-Foulkes estimate   =    -172.03384832 Ry
     estimated scf accuracy    <       0.00000004 Ry

     iteration # 56     ecut=   150.00 Ry     beta= 0.05
     Davidson diagonalization with overlap
     ethr =  5.97E-11,  avg # of iterations =  3.5

     negative rho (up, down):  1.101E-04 0.000E+00

     total cpu time spent up to now is     2021.3 secs

     total energy              =    -172.03384831 Ry
     Harris-Foulkes estimate   =    -172.03384833 Ry
     estimated scf accuracy    <       0.00000004 Ry

     iteration # 57     ecut=   150.00 Ry     beta= 0.05
     Davidson diagonalization with overlap
     ethr =  5.97E-11,  avg # of iterations =  4.8

     negative rho (up, down):  1.101E-04 0.000E+00

     total cpu time spent up to now is     2056.5 secs

     total energy              =    -172.03384832 Ry
     Harris-Foulkes estimate   =    -172.03384832 Ry
     estimated scf accuracy    <       0.00000002 Ry

     iteration # 58     ecut=   150.00 Ry     beta= 0.05
     Davidson diagonalization with overlap
     ethr =  2.62E-11,  avg # of iterations =  4.1

     negative rho (up, down):  1.101E-04 0.000E+00

     total cpu time spent up to now is     2090.8 secs

     total energy              =    -172.03384832 Ry
     Harris-Foulkes estimate   =    -172.03384832 Ry
     estimated scf accuracy    <       0.00000001 Ry

     iteration # 59     ecut=   150.00 Ry     beta= 0.05
     Davidson diagonalization with overlap
     ethr =  2.14E-11,  avg # of iterations =  5.5

     negative rho (up, down):  1.101E-04 0.000E+00

     total cpu time spent up to now is     2135.6 secs

     total energy              =    -172.03384832 Ry
     Harris-Foulkes estimate   =    -172.03384832 Ry
     estimated scf accuracy    <       0.00000003 Ry

     iteration # 60     ecut=   150.00 Ry     beta= 0.05
     Davidson diagonalization with overlap
     ethr =  2.14E-11,  avg # of iterations =  1.0

     negative rho (up, down):  1.100E-04 0.000E+00

     total cpu time spent up to now is     2163.2 secs

     total energy              =    -172.03384833 Ry
     Harris-Foulkes estimate   =    -172.03384832 Ry
     estimated scf accuracy    <       0.00000003 Ry

     iteration # 61     ecut=   150.00 Ry     beta= 0.05
     Davidson diagonalization with overlap
     ethr =  2.14E-11,  avg # of iterations =  1.0

     negative rho (up, down):  1.100E-04 0.000E+00

     total cpu time spent up to now is     2190.8 secs

     total energy              =    -172.03384833 Ry
     Harris-Foulkes estimate   =    -172.03384833 Ry
     estimated scf accuracy    <       0.00000003 Ry

     iteration # 62     ecut=   150.00 Ry     beta= 0.05
     Davidson diagonalization with overlap
     ethr =  2.14E-11,  avg # of iterations =  1.5

     negative rho (up, down):  1.100E-04 0.000E+00

     total cpu time spent up to now is     2219.0 secs

     total energy              =    -172.03384833 Ry
     Harris-Foulkes estimate   =    -172.03384833 Ry
     estimated scf accuracy    <       0.00000004 Ry

     iteration # 63     ecut=   150.00 Ry     beta= 0.05
     Davidson diagonalization with overlap
     ethr =  2.14E-11,  avg # of iterations =  1.0

     negative rho (up, down):  1.100E-04 0.000E+00

     total cpu time spent up to now is     2246.5 secs

     total energy              =    -172.03384832 Ry
     Harris-Foulkes estimate   =    -172.03384833 Ry
     estimated scf accuracy    <       0.00000004 Ry

     iteration # 64     ecut=   150.00 Ry     beta= 0.05
     Davidson diagonalization with overlap
     ethr =  2.14E-11,  avg # of iterations =  5.3

     negative rho (up, down):  1.100E-04 0.000E+00

     total cpu time spent up to now is     2283.5 secs

     total energy              =    -172.03384832 Ry
     Harris-Foulkes estimate   =    -172.03384832 Ry
     estimated scf accuracy    <       0.00000001 Ry

     iteration # 65     ecut=   150.00 Ry     beta= 0.05
     Davidson diagonalization with overlap
     ethr =  2.01E-11,  avg # of iterations =  5.5

     negative rho (up, down):  1.101E-04 0.000E+00

     total cpu time spent up to now is     2322.7 secs

     total energy              =    -172.03384831 Ry
     Harris-Foulkes estimate   =    -172.03384832 Ry
     estimated scf accuracy    <       0.00000001 Ry

     iteration # 66     ecut=   150.00 Ry     beta= 0.05
     Davidson diagonalization with overlap
     ethr =  1.83E-11,  avg # of iterations =  5.5

     negative rho (up, down):  1.100E-04 0.000E+00

     total cpu time spent up to now is     2377.0 secs

     total energy              =    -172.03384830 Ry
     Harris-Foulkes estimate   =    -172.03384833 Ry
     estimated scf accuracy    <       0.00000006 Ry

     iteration # 67     ecut=   150.00 Ry     beta= 0.05
     Davidson diagonalization with overlap
     ethr =  1.83E-11,  avg # of iterations =  6.5

     negative rho (up, down):  1.100E-04 0.000E+00

     total cpu time spent up to now is     2433.4 secs

     total energy              =    -172.03384831 Ry
     Harris-Foulkes estimate   =    -172.03384833 Ry
     estimated scf accuracy    <       0.00000004 Ry

     iteration # 68     ecut=   150.00 Ry     beta= 0.05
     Davidson diagonalization with overlap
     ethr =  1.83E-11,  avg # of iterations =  5.5

     negative rho (up, down):  1.100E-04 0.000E+00

     total cpu time spent up to now is     2483.8 secs

     End of self-consistent calculation

          k = 0.0000 0.0000 0.0000 (441431 PWs)   bands (ev):

   -22.5556 -21.6260 -20.2309 -18.4783 -17.3816 -16.5600 -16.5564 -16.3070
   -15.7389 -15.3252 -13.7132 -13.5031 -13.4948 -11.9226 -11.7946 -11.7229
   -10.8407 -10.3486  -9.9713  -9.8181  -9.7767  -8.2344  -8.2005  -8.0024
    -6.9129  -6.9018  -6.3081  -5.5763  -4.5218  -4.1629

          k = 0.0000 0.1628 0.0000 (441399 PWs)   bands (ev):

   -22.5499 -21.6204 -20.2254 -18.4736 -17.4776 -16.6565 -16.5518 -16.2139
   -15.6416 -15.3587 -13.7732 -13.4610 -13.4534 -11.8834 -11.8596 -11.6822
   -10.8338 -10.3449  -9.9465  -9.8290  -9.7817  -8.2285  -8.1924  -8.0204
    -6.9257  -6.9150  -6.3048  -5.6139  -4.5734  -4.1898

          k = 0.0000 0.3255 0.0000 (441403 PWs)   bands (ev):

   -22.5327 -21.6035 -20.2090 -18.4594 -17.6975 -16.8720 -16.5600 -15.9802
   -15.4458 -15.4270 -13.9078 -13.3926 -13.3187 -11.9791 -11.7741 -11.6307
   -10.8131 -10.3349  -9.8852  -9.8769  -9.7697  -8.2107  -8.1715  -8.0732
    -6.9640  -6.9549  -6.2952  -5.7214  -4.7139  -4.2660

          k = 0.0000 0.4883 0.0000 (441319 PWs)   bands (ev):

   -22.5042 -21.5754 -20.1817 -18.4359 -17.9626 -17.1268 -16.5936 -15.6803
   -15.5551 -15.1777 -14.0776 -13.3085 -13.1216 -12.1292 -11.6145 -11.5801
   -10.7787 -10.3247  -9.9734  -9.7774  -9.7380  -8.1812  -8.1582  -8.1455
    -7.0276  -7.0220  -6.2794  -5.8856  -4.9143  -4.3810

          k = 0.0000 0.6510 0.0000 (441331 PWs)   bands (ev):

   -22.4643 -21.5360 -20.1436 -18.4038 -18.2411 -17.3924 -16.6591 -15.6574
   -15.3481 -14.9309 -14.2604 -13.2035 -12.8845 -12.3017 -11.5252 -11.4233
   -10.7305 -10.3355 -10.0607  -9.6928  -9.6592  -8.2704  -8.1419  -8.1231
    -7.1240  -7.1087  -6.2578  -6.0910  -5.1499  -4.5241

          k = 0.0000 0.8138 0.0000 (441339 PWs)   bands (ev):

   -22.4130 -21.4854 -20.0947 -18.5211 -18.3645 -17.6576 -16.7636 -15.7274
   -14.9997 -14.7396 -14.4072 -13.0708 -12.6250 -12.4872 -11.4624 -11.2153
   -10.6686 -10.4112 -10.0930  -9.6328  -9.5377  -8.4060  -8.1237  -8.0820
    -7.2537  -7.2129  -6.3240  -6.2312  -5.4045  -4.6868

          k = 0.0000 0.9766 0.0000 (441443 PWs)   bands (ev):

   -22.3504 -21.4237 -20.0351 -18.7974 -18.3227 -17.9134 -16.9065 -15.7576
   -14.7822 -14.6399 -14.3413 -12.9051 -12.6892 -12.3437 -11.3894 -11.0013
   -10.5930 -10.5500 -10.0648  -9.5598  -9.4221  -8.5600  -8.1389  -8.0175
    -7.4146  -7.3340  -6.5745  -6.2003  -5.6680  -4.8633

          k = 0.0000 1.1393 0.0000 (441391 PWs)   bands (ev):

   -22.2765 -21.3509 -19.9652 -19.0673 -18.3158 -18.1206 -17.0787 -15.7514
   -14.9655 -14.2726 -14.1555 -12.8898 -12.7043 -12.0614 -11.3046 -10.8012
   -10.7044 -10.5038 -10.0060  -9.4736  -9.3215  -8.7276  -8.1817  -7.9407
    -7.6044  -7.4691  -6.8352  -6.1673  -5.9334  -5.0490

          k = 0.0000 1.3021 0.0000 (441319 PWs)   bands (ev):

   -22.1914 -21.2671 -19.8854 -19.3290 -18.4815 -18.1409 -17.2688 -15.7167
   -15.1663 -13.9701 -13.9005 -13.0905 -12.4705 -11.7786 -11.2060 -10.9059
   -10.5716 -10.4010  -9.9298  -9.3746  -9.2460  -8.9019  -8.2549  -7.8526
    -7.8195  -7.6155  -7.1012  -6.2128  -6.1171  -5.2408

          k = 0.0000 1.4648 0.0000 (441231 PWs)   bands (ev):

   -22.0950 -21.1724 -19.7990 -19.5786 -18.7134 -18.0807 -17.4679 -15.6607
   -15.3653 -13.7980 -13.5329 -13.2811 -12.2104 -11.5040 -11.0899 -11.0853
   -10.3781 -10.2846  -9.8411  -9.2654  -9.2232  -9.0558  -8.3592  -8.0558
    -7.7714  -7.7525  -7.3688  -6.4692  -6.0856  -5.4358

          k = 0.0000 1.6276 0.0000 (441160 PWs)   bands (ev):

   -21.9876 -21.0671 -19.8416 -19.6801 -18.9463 -18.0059 -17.6694 -15.5890
   -15.5562 -13.6385 -13.4978 -13.1322 -11.9365 -11.2583 -11.2506 -10.9474
   -10.2003 -10.1542  -9.7426  -9.3490  -9.1358  -9.1071  -8.4939  -8.3063
    -7.9317  -7.6579  -7.6207  -6.7268  -6.0482  -5.6320

          k = 0.0000 1.7904 0.0000 (441176 PWs)   bands (ev):

   -21.8693 -20.9512 -20.0696 -19.5772 -19.1725 -17.9259 -17.8688 -15.7350
   -15.5058 -13.6786 -13.4889 -12.7599 -11.6959 -11.3796 -11.0365 -10.7664
   -10.0440 -10.0103  -9.6364  -9.5408  -9.1295  -8.9988  -8.6561  -8.5619
    -8.0961  -7.9005  -7.5208  -6.9786  -6.0121  -5.8274

          k = 0.0000 1.9531 0.0000 (441148 PWs)   bands (ev):

   -21.7403 -20.8254 -20.2932 -19.4602 -19.3894 -18.0629 -17.8453 -15.8968
   -15.4155 -13.8516 -13.3480 -12.3875 -11.6987 -11.2420 -10.8633 -10.5530
    -9.9132  -9.8587  -9.7455  -9.5246  -9.1859  -8.8522  -8.8396  -8.8040
    -8.2612  -8.1568  -7.3912  -7.2229  -6.0203  -5.9792

          k = 0.0000 2.1159 0.0000 (441260 PWs)   bands (ev):

   -21.6011 -20.6906 -20.5067 -19.5957 -19.3359 -18.2477 -17.7697 -16.0360
   -15.3238 -14.0080 -13.2174 -12.0225 -11.8323 -10.9587 -10.7179 -10.3403
    -9.9561  -9.8233  -9.6872  -9.4100  -9.2998  -9.0329  -9.0104  -8.6876
    -8.4275  -8.4010  -7.4585  -7.2527  -6.2085  -5.9517

          k = 0.0000 2.2786 0.0000 (441280 PWs)   bands (ev):

   -21.4532 -20.7079 -20.5494 -19.7881 -19.2099 -18.4175 -17.7059 -16.1455
   -15.2393 -14.1387 -13.1037 -11.9612 -11.6729 -10.6635 -10.6196 -10.2239
   -10.0580  -9.8034  -9.5179  -9.4600  -9.3083  -9.1837  -9.1633  -8.6471
    -8.5732  -8.5162  -7.6835  -7.1078  -6.3894  -5.9308

          k = 0.0000 2.4414 0.0000 (441268 PWs)   bands (ev):

   -21.3022 -20.8910 -20.4116 -19.9567 -19.0969 -18.5570 -17.6624 -16.2165
   -15.1761 -14.2297 -13.0208 -12.0555 -11.3584 -10.6705 -10.3815 -10.2438
    -9.9464  -9.8919  -9.6322  -9.3294  -9.3128  -9.2799  -9.1542  -8.8708
    -8.7053  -8.3394  -7.8927  -6.9639  -6.5550  -5.9177

          k = 0.0000-2.6042 0.0000 (441176 PWs)   bands (ev):

   -21.2022 -21.0016 -20.3329 -20.0456 -19.0428 -18.6200 -17.6468 -16.2413
   -15.1519 -14.2632 -12.9892 -12.0911 -11.1827 -10.7822 -10.2168 -10.1855
   -10.0290  -9.8967  -9.6946  -9.3507  -9.3274  -9.1681  -9.1048  -9.0310
    -8.7680  -8.2140  -8.0288  -6.8751  -6.6511  -5.9132

     highest occupied level (ev):    -4.1629

!    total energy              =    -172.03384831 Ry
     Harris-Foulkes estimate   =    -172.03384832 Ry
     estimated scf accuracy    <          7.8E-09 Ry

     The total energy is the sum of the following terms:

     one-electron contribution =   -1672.00515457 Ry
     hartree contribution      =     843.20929445 Ry
     xc contribution           =     -60.44901578 Ry
     ewald contribution        =     717.21102759 Ry

     convergence has been achieved in  68 iterations

     negative rho (up, down):  1.100E-04 0.000E+00

     Forces acting on atoms (cartesian axes, Ry/au):

     atom    1 type  2   force =     0.03002829    0.08080792    0.00024578
     atom    2 type  1   force =    -0.01278203   -0.00131921   -0.00018052
     atom    3 type  2   force =     0.02993370   -0.08046628   -0.00023554
     atom    4 type  1   force =    -0.01212484    0.00105433   -0.00020962
     atom    5 type  2   force =    -0.01214527   -0.00002767    0.00087864
     atom    6 type  2   force =    -0.00968150   -0.02253132   -0.01201408
     atom    7 type  2   force =    -0.01084036    0.00001985   -0.00091785
     atom    8 type  2   force =    -0.01241448    0.02246555    0.01212481
     atom    9 type  2   force =     0.01082197    0.00054387    0.00188825
     atom   10 type  2   force =     0.00048802   -0.05629839   -0.02147356
     atom   11 type  2   force =     0.01251238   -0.00054130   -0.00189796
     atom   12 type  2   force =    -0.00060941    0.05652626    0.02231330
     atom   13 type  2   force =    -0.03191320    0.08107782   -0.00346731
     atom   14 type  2   force =     0.01225105   -0.02500595   -0.02681873
     atom   15 type  2   force =    -0.03170258   -0.08209532    0.00217257
     atom   16 type  2   force =     0.01112006    0.02568700    0.02711023
     atom   17 type  1   force =     0.01351577   -0.00208323   -0.00057203
     atom   18 type  1   force =     0.01354243    0.00218606    0.00105360

     Total force =     0.208046     Total SCF correction =     0.000195


     Computing stress (Cartesian axis) and pressure


     negative rho (up, down):  1.100E-04 0.000E+00
          total   stress  (Ry/bohr**3)                   (kbar)     P=   -2.03
  -0.00000620  -0.00000019  -0.00000003         -0.91     -0.03     -0.00
  -0.00000019  -0.00003459  -0.00000021         -0.03     -5.09     -0.03
  -0.00000003  -0.00000021  -0.00000069         -0.00     -0.03     -0.10


     Writing output data file cc.save
 
     init_run     :     42.05s CPU     24.10s WALL (       1 calls)
     electrons    :   4548.89s CPU   2459.50s WALL (       1 calls)
     forces       :      4.46s CPU      2.76s WALL (       1 calls)
     stress       :     21.04s CPU     11.03s WALL (       1 calls)

     Called by init_run:
     wfcinit      :     38.10s CPU     20.67s WALL (       1 calls)
     potinit      :      0.65s CPU      0.44s WALL (       1 calls)

     Called by electrons:
     c_bands      :   3820.25s CPU   2060.38s WALL (      68 calls)
     sum_band     :    704.04s CPU    383.59s WALL (      68 calls)
     v_of_rho     :      3.32s CPU      1.76s WALL (      69 calls)
     newd         :     12.14s CPU      8.37s WALL (      69 calls)
     mix_rho      :      8.04s CPU      4.30s WALL (      68 calls)

     Called by c_bands:
     init_us_2    :     42.46s CPU     23.34s WALL (    2363 calls)
     cegterg      :   3728.39s CPU   2010.30s WALL (    1156 calls)

     Called by sum_band:
     sum_band:bec :      0.13s CPU      0.12s WALL (    1156 calls)
     addusdens    :     14.55s CPU     10.32s WALL (      68 calls)

     Called by *egterg:
     h_psi        :   3242.82s CPU   1759.78s WALL (    5100 calls)
     s_psi        :     64.72s CPU     36.24s WALL (    5100 calls)
     g_psi        :      6.84s CPU      3.65s WALL (    3927 calls)
     cdiaghg      :     92.71s CPU     49.10s WALL (    5083 calls)

     Called by h_psi:
     h_psi:pot    :   3217.19s CPU   1750.04s WALL (    5100 calls)
     h_psi:calbec :     77.10s CPU     38.80s WALL (    5100 calls)
     vloc_psi     :   3071.64s CPU   1673.12s WALL (    5100 calls)
     add_vuspsi   :     67.44s CPU     38.04s WALL (    5100 calls)

     General routines
     calbec       :    102.95s CPU     51.51s WALL (    6341 calls)
     fft          :     13.14s CPU      7.06s WALL (     421 calls)
     fftw         :   3201.67s CPU   1767.94s WALL (  222116 calls)
     davcio       :      0.00s CPU      0.12s WALL (      17 calls)
 
     Parallel routines
     fft_scatt_xy :    496.67s CPU    174.28s WALL (  222537 calls)
     fft_scatt_yz :   1075.40s CPU    606.69s WALL (  222537 calls)
 
     PWSCF        :     1h16m CPU        0h41m WALL

 
   This run was terminated on:  13:12:58  18Jun2019            

=------------------------------------------------------------------------------=
   JOB DONE.
=------------------------------------------------------------------------------=

     Program PWSCF v.6.2 starts on 18Jun2019 at 13:13:16 

     This program is part of the open-source Quantum ESPRESSO suite
     for quantum simulation of materials; please cite
         "P. Giannozzi et al., J. Phys.:Condens. Matter 21 395502 (2009);
         "P. Giannozzi et al., J. Phys.:Condens. Matter 29 465901 (2017);
          URL http://www.quantum-espresso.org", 
     in publications or presentations arising from this work. More details at
     http://www.quantum-espresso.org/quote

     Parallel version (MPI & OpenMP), running on     128 processor cores
     Number of MPI processes:                64
     Threads/MPI process:                     2

     MPI processes distributed on     2 nodes
     R & G space division:  proc/nbgrp/npool/nimage =      64
     Reading input from nscf.in
Warning: card &IONS ignored
Warning: card  / ignored
Warning: card &CELL ignored
Warning: card  / ignored

     Current dimensions of program PWSCF are:
     Max number of different atomic species (ntypx) = 20
     Max number of k-points (npk) =  40000
     Max angular momentum in pseudopotentials (lmaxx) =  3

     Atomic positions and unit cell read from directory:
     ./cc.save/
 

     Subspace diagonalization in iterative solution of the eigenvalue problem:
     one sub-group per band group will be used
     scalapack distributed-memory algorithm (size of sub-group:  5*  5 procs)

 
     Parallelization info
     --------------------
     sticks:   dense  smooth     PW     G-vecs:    dense   smooth      PW
     Min         252     252     67                55162    55162    7571
     Max         253     253     68                55179    55179    7584
     Sum       16177   16177   4317              3530959  3530959  484893
 

     Title: 
     GNR                                                                        


     bravais-lattice index     =            8
     lattice parameter (alat)  =      42.0000  a.u.
     unit-cell volume          =   14224.8960 (a.u.)^3
     number of atoms/cell      =           18
     number of atomic types    =            2
     number of electrons       =        60.00
     number of Kohn-Sham states=           60
     kinetic-energy cutoff     =     150.0000  Ry
     charge density cutoff     =     600.0000  Ry
     Exchange-correlation      = LDA ( 1  1  0  0 0 0)

     celldm(1)=  42.000000  celldm(2)=   0.192000  celldm(3)=   1.000000
     celldm(4)=   0.000000  celldm(5)=   0.000000  celldm(6)=   0.000000

     crystal axes: (cart. coord. in units of alat)
               a(1) = (   1.000000   0.000000   0.000000 )  
               a(2) = (   0.000000   0.192000   0.000000 )  
               a(3) = (   0.000000   0.000000   1.000000 )  

     reciprocal axes: (cart. coord. in units 2 pi/alat)
               b(1) = (  1.000000  0.000000  0.000000 )  
               b(2) = (  0.000000  5.208333  0.000000 )  
               b(3) = (  0.000000  0.000000  1.000000 )  


     PseudoPot. # 1 for H  read from file:
     ./H.pz-rrkjus_psl.1.0.0.UPF
     MD5 check sum: 3e8167ece7ffd2ca4a851f90e812e756
     Pseudo is Ultrasoft, Zval =  1.0
     Generated using "atomic" code by A. Dal Corso v.6.3MaX
     Using radial grid of  929 points,  2 beta functions with: 
                l(1) =   0
                l(2) =   0
     Q(r) pseudized with 0 coefficients 


     PseudoPot. # 2 for C  read from file:
     ./C.pz-n-rrkjus_psl.0.1.UPF
     MD5 check sum: a3cecbabebb5b3a1aff122f23eb09bb0
     Pseudo is Ultrasoft + core correction, Zval =  4.0
     Generated using "atomic" code by A. Dal Corso v.5.0.2 svn rev. 9415
     Using radial grid of 1073 points,  4 beta functions with: 
                l(1) =   0
                l(2) =   0
                l(3) =   1
                l(4) =   1
     Q(r) pseudized with 0 coefficients 


     atomic species   valence    mass     pseudopotential
       H               1.00     1.00790     H ( 1.00)
       C               4.00    12.01100     C ( 1.00)

     No symmetry found



   Cartesian axes

     site n.     atom                  positions (alat units)
         1          C    tau(   1) = (   0.0565568   0.0961961   0.0083463  )
         2          H    tau(   2) = (   0.0144294   0.0719041   0.0088007  )
         3          C    tau(   3) = (   0.0565748   0.1595559   0.0077974  )
         4          H    tau(   4) = (   0.0144339   0.1838704   0.0081753  )
         5          C    tau(   5) = (   0.1664669   0.0959756   0.0082383  )
         6          C    tau(   6) = (   0.1113634   0.0644172   0.0086208  )
         7          C    tau(   7) = (   0.1664669   0.1597448   0.0070820  )
         8          C    tau(   8) = (   0.1114129   0.1913213   0.0069200  )
         9          C    tau(   9) = (   0.2764894   0.0959756   0.0093092  )
        10          C    tau(  10) = (   0.2214624   0.0643407   0.0092822  )
        11          C    tau(  11) = (   0.2764759   0.1597448   0.0075814  )
        12          C    tau(  12) = (   0.2214849   0.1913708   0.0063981  )
        13          C    tau(  13) = (   0.3864085   0.0962276   0.0112979  )
        14          C    tau(  14) = (   0.3315435   0.0644397   0.0112619  )
        15          C    tau(  15) = (   0.3864265   0.1595649   0.0088187  )
        16          C    tau(  16) = (   0.3315794   0.1912898   0.0071720  )
        17          H    tau(  17) = (   0.4284954   0.0719851   0.0131111  )
        18          H    tau(  18) = (   0.4285359   0.1838209   0.0082293  )

     number of k points=   101

     Number of k-points >= 100: set verbosity='high' to print them.

     Dense  grid:  3530959 G-vectors     FFT dimensions: ( 360,  64, 360)

     Estimated max dynamical RAM per process >     121.23 MB

     Estimated total dynamical RAM >       7.58 GB

     The potential is recalculated from file :
     ./cc.save/charge-density.dat


     negative rho (up, down):  1.100E-04 0.000E+00
     Starting wfc are   60 randomized atomic wfcs

     Band Structure Calculation
     Davidson diagonalization with overlap
     c_bands:  1 eigenvalues not converged
     c_bands:  1 eigenvalues not converged
     c_bands:  1 eigenvalues not converged
     c_bands:  1 eigenvalues not converged
     c_bands:  1 eigenvalues not converged
     c_bands:  1 eigenvalues not converged
     c_bands:  1 eigenvalues not converged
     c_bands:  1 eigenvalues not converged
     c_bands:  1 eigenvalues not converged
     c_bands:  1 eigenvalues not converged
     c_bands:  1 eigenvalues not converged
     c_bands:  1 eigenvalues not converged
     c_bands:  1 eigenvalues not converged
     c_bands:  1 eigenvalues not converged
     c_bands:  1 eigenvalues not converged
     c_bands:  1 eigenvalues not converged
     c_bands:  1 eigenvalues not converged
     c_bands:  1 eigenvalues not converged
     c_bands:  1 eigenvalues not converged
     c_bands:  1 eigenvalues not converged
     c_bands:  1 eigenvalues not converged
     c_bands:  1 eigenvalues not converged
     c_bands:  4 eigenvalues not converged
     c_bands:  2 eigenvalues not converged
     c_bands:  2 eigenvalues not converged
     c_bands:  3 eigenvalues not converged
     c_bands:  2 eigenvalues not converged
     c_bands:  2 eigenvalues not converged
     c_bands:  2 eigenvalues not converged
     c_bands:  3 eigenvalues not converged
     c_bands:  2 eigenvalues not converged
     c_bands:  1 eigenvalues not converged
     c_bands:  2 eigenvalues not converged
     c_bands:  2 eigenvalues not converged
     c_bands:  2 eigenvalues not converged
     c_bands:  1 eigenvalues not converged
     c_bands:  1 eigenvalues not converged
     c_bands:  1 eigenvalues not converged
     c_bands:  1 eigenvalues not converged

     ethr =  1.67E-11,  avg # of iterations =106.8

     total cpu time spent up to now is     5141.2 secs

     End of band structure calculation

     Number of k-points >= 100: set verbosity='high' to print the bands.

     highest occupied, lowest unoccupied level (ev):    -4.1629   -2.8583

     Writing output data file cc.save
 
     init_run     :      3.65s CPU      3.32s WALL (       1 calls)
     electrons    :   9556.79s CPU   5137.23s WALL (       1 calls)

     Called by init_run:
     wfcinit      :      0.01s CPU      0.01s WALL (       1 calls)
     potinit      :      0.36s CPU      0.30s WALL (       1 calls)

     Called by electrons:
     c_bands      :   9556.79s CPU   5137.23s WALL (       1 calls)
     v_of_rho     :      0.03s CPU      0.03s WALL (       1 calls)
     newd         :      0.18s CPU      0.14s WALL (       1 calls)

     Called by c_bands:
     init_us_2    :      1.72s CPU      0.99s WALL (     101 calls)
     cegterg      :   9306.57s CPU   4996.29s WALL (     570 calls)

     Called by sum_band:

     Called by *egterg:
     h_psi        :   7420.48s CPU   4032.24s WALL (   11460 calls)
     s_psi        :    156.46s CPU     85.70s WALL (   11460 calls)
     g_psi        :     21.33s CPU     11.45s WALL (   10789 calls)
     cdiaghg      :    385.55s CPU    200.72s WALL (   10890 calls)

     Called by h_psi:
     h_psi:pot    :   7362.50s CPU   4008.22s WALL (   11460 calls)
     h_psi:calbec :    185.90s CPU     92.84s WALL (   11460 calls)
     vloc_psi     :   7017.97s CPU   3829.12s WALL (   11460 calls)
     add_vuspsi   :    156.61s CPU     86.07s WALL (   11460 calls)

     General routines
     calbec       :    185.72s CPU     92.76s WALL (   11460 calls)
     fft          :      0.17s CPU      0.12s WALL (       6 calls)
     fftw         :   6084.72s CPU   3393.04s WALL (  430736 calls)
     davcio       :      3.21s CPU      3.66s WALL (     101 calls)
 
     Parallel routines
     fft_scatt_xy :    871.55s CPU    327.71s WALL (  430742 calls)
     fft_scatt_yz :   1952.51s CPU   1125.54s WALL (  430742 calls)
 
     PWSCF        :     2h39m CPU        1h25m WALL

 
   This run was terminated on:  14:38:57  18Jun2019            

=------------------------------------------------------------------------------=
   JOB DONE.
=------------------------------------------------------------------------------=

     Program PWSCF v.6.2 starts on 18Jun2019 at 14:39: 6 

     This program is part of the open-source Quantum ESPRESSO suite
     for quantum simulation of materials; please cite
         "P. Giannozzi et al., J. Phys.:Condens. Matter 21 395502 (2009);
         "P. Giannozzi et al., J. Phys.:Condens. Matter 29 465901 (2017);
          URL http://www.quantum-espresso.org", 
     in publications or presentations arising from this work. More details at
     http://www.quantum-espresso.org/quote

     Parallel version (MPI & OpenMP), running on     128 processor cores
     Number of MPI processes:                64
     Threads/MPI process:                     2

     MPI processes distributed on     2 nodes
     R & G space division:  proc/nbgrp/npool/nimage =      64
     Reading input from bands.in
Warning: card &IONS ignored
Warning: card  / ignored
Warning: card &CELL ignored
Warning: card  / ignored

     Current dimensions of program PWSCF are:
     Max number of different atomic species (ntypx) = 20
     Max number of k-points (npk) =  40000
     Max angular momentum in pseudopotentials (lmaxx) =  3

     Atomic positions and unit cell read from directory:
     ./cc.save/
 

     Subspace diagonalization in iterative solution of the eigenvalue problem:
     one sub-group per band group will be used
     scalapack distributed-memory algorithm (size of sub-group:  5*  5 procs)

 
     Parallelization info
     --------------------
     sticks:   dense  smooth     PW     G-vecs:    dense   smooth      PW
     Min         252     252     67                55162    55162    7571
     Max         253     253     68                55179    55179    7584
     Sum       16177   16177   4317              3530959  3530959  484893
 

     Title: 
     GNR                                                                        


     bravais-lattice index     =            8
     lattice parameter (alat)  =      42.0000  a.u.
     unit-cell volume          =   14224.8960 (a.u.)^3
     number of atoms/cell      =           18
     number of atomic types    =            2
     number of electrons       =        60.00
     number of Kohn-Sham states=           60
     kinetic-energy cutoff     =     150.0000  Ry
     charge density cutoff     =     600.0000  Ry
     Exchange-correlation      = LDA ( 1  1  0  0 0 0)

     celldm(1)=  42.000000  celldm(2)=   0.192000  celldm(3)=   1.000000
     celldm(4)=   0.000000  celldm(5)=   0.000000  celldm(6)=   0.000000

     crystal axes: (cart. coord. in units of alat)
               a(1) = (   1.000000   0.000000   0.000000 )  
               a(2) = (   0.000000   0.192000   0.000000 )  
               a(3) = (   0.000000   0.000000   1.000000 )  

     reciprocal axes: (cart. coord. in units 2 pi/alat)
               b(1) = (  1.000000  0.000000  0.000000 )  
               b(2) = (  0.000000  5.208333  0.000000 )  
               b(3) = (  0.000000  0.000000  1.000000 )  


     PseudoPot. # 1 for H  read from file:
     ./H.pz-rrkjus_psl.1.0.0.UPF
     MD5 check sum: 3e8167ece7ffd2ca4a851f90e812e756
     Pseudo is Ultrasoft, Zval =  1.0
     Generated using "atomic" code by A. Dal Corso v.6.3MaX
     Using radial grid of  929 points,  2 beta functions with: 
                l(1) =   0
                l(2) =   0
     Q(r) pseudized with 0 coefficients 


     PseudoPot. # 2 for C  read from file:
     ./C.pz-n-rrkjus_psl.0.1.UPF
     MD5 check sum: a3cecbabebb5b3a1aff122f23eb09bb0
     Pseudo is Ultrasoft + core correction, Zval =  4.0
     Generated using "atomic" code by A. Dal Corso v.5.0.2 svn rev. 9415
     Using radial grid of 1073 points,  4 beta functions with: 
                l(1) =   0
                l(2) =   0
                l(3) =   1
                l(4) =   1
     Q(r) pseudized with 0 coefficients 


     atomic species   valence    mass     pseudopotential
       H               1.00     1.00790     H ( 1.00)
       C               4.00    12.01100     C ( 1.00)

     No symmetry found



   Cartesian axes

     site n.     atom                  positions (alat units)
         1          C    tau(   1) = (   0.0565568   0.0961961   0.0083463  )
         2          H    tau(   2) = (   0.0144294   0.0719041   0.0088007  )
         3          C    tau(   3) = (   0.0565748   0.1595559   0.0077974  )
         4          H    tau(   4) = (   0.0144339   0.1838704   0.0081753  )
         5          C    tau(   5) = (   0.1664669   0.0959756   0.0082383  )
         6          C    tau(   6) = (   0.1113634   0.0644172   0.0086208  )
         7          C    tau(   7) = (   0.1664669   0.1597448   0.0070820  )
         8          C    tau(   8) = (   0.1114129   0.1913213   0.0069200  )
         9          C    tau(   9) = (   0.2764894   0.0959756   0.0093092  )
        10          C    tau(  10) = (   0.2214624   0.0643407   0.0092822  )
        11          C    tau(  11) = (   0.2764759   0.1597448   0.0075814  )
        12          C    tau(  12) = (   0.2214849   0.1913708   0.0063981  )
        13          C    tau(  13) = (   0.3864085   0.0962276   0.0112979  )
        14          C    tau(  14) = (   0.3315435   0.0644397   0.0112619  )
        15          C    tau(  15) = (   0.3864265   0.1595649   0.0088187  )
        16          C    tau(  16) = (   0.3315794   0.1912898   0.0071720  )
        17          H    tau(  17) = (   0.4284954   0.0719851   0.0131111  )
        18          H    tau(  18) = (   0.4285359   0.1838209   0.0082293  )

     number of k points=   101

     Number of k-points >= 100: set verbosity='high' to print them.

     Dense  grid:  3530959 G-vectors     FFT dimensions: ( 360,  64, 360)

     Estimated max dynamical RAM per process >     121.23 MB

     Estimated total dynamical RAM >       7.58 GB

     The potential is recalculated from file :
     ./cc.save/charge-density.dat


     negative rho (up, down):  1.100E-04 0.000E+00
     Starting wfc are   60 randomized atomic wfcs

     Band Structure Calculation
     Davidson diagonalization with overlap
     c_bands:  1 eigenvalues not converged
     c_bands:  1 eigenvalues not converged
     c_bands:  1 eigenvalues not converged
     c_bands:  1 eigenvalues not converged
     c_bands:  1 eigenvalues not converged
     c_bands:  1 eigenvalues not converged
     c_bands:  1 eigenvalues not converged
     c_bands:  1 eigenvalues not converged
     c_bands:  1 eigenvalues not converged
     c_bands:  1 eigenvalues not converged
     c_bands:  1 eigenvalues not converged
     c_bands:  1 eigenvalues not converged
     c_bands:  1 eigenvalues not converged
     c_bands:  1 eigenvalues not converged
     c_bands:  1 eigenvalues not converged
     c_bands:  1 eigenvalues not converged
     c_bands:  1 eigenvalues not converged
     c_bands:  1 eigenvalues not converged
     c_bands:  1 eigenvalues not converged
     c_bands:  1 eigenvalues not converged
     c_bands:  1 eigenvalues not converged
     c_bands:  1 eigenvalues not converged
     c_bands:  4 eigenvalues not converged
     c_bands:  2 eigenvalues not converged
     c_bands:  2 eigenvalues not converged
     c_bands:  3 eigenvalues not converged
     c_bands:  2 eigenvalues not converged
     c_bands:  2 eigenvalues not converged
     c_bands:  2 eigenvalues not converged
     c_bands:  3 eigenvalues not converged
     c_bands:  3 eigenvalues not converged
     c_bands:  1 eigenvalues not converged
     c_bands:  2 eigenvalues not converged
     c_bands:  3 eigenvalues not converged
     c_bands:  2 eigenvalues not converged
     c_bands:  1 eigenvalues not converged
     c_bands:  1 eigenvalues not converged
     c_bands:  1 eigenvalues not converged
     c_bands:  1 eigenvalues not converged

     ethr =  1.67E-11,  avg # of iterations =106.8

     total cpu time spent up to now is     5138.1 secs

     End of band structure calculation

     Number of k-points >= 100: set verbosity='high' to print the bands.

     Writing output data file cc.save
 
     init_run     :      3.69s CPU      3.43s WALL (       1 calls)
     electrons    :   9533.84s CPU   5133.67s WALL (       1 calls)

     Called by init_run:
     wfcinit      :      0.05s CPU      0.05s WALL (       1 calls)
     potinit      :      0.34s CPU      0.36s WALL (       1 calls)

     Called by electrons:
     c_bands      :   9533.84s CPU   5133.67s WALL (       1 calls)
     v_of_rho     :      0.04s CPU      0.03s WALL (       1 calls)
     newd         :      0.17s CPU      0.14s WALL (       1 calls)

     Called by c_bands:
     init_us_2    :      1.65s CPU      0.94s WALL (     101 calls)
     cegterg      :   9268.48s CPU   4972.55s WALL (     570 calls)

     Called by sum_band:

     Called by *egterg:
     h_psi        :   7381.68s CPU   4008.66s WALL (   11460 calls)
     s_psi        :    158.86s CPU     85.61s WALL (   11460 calls)
     g_psi        :     21.36s CPU     11.43s WALL (   10789 calls)
     cdiaghg      :    385.60s CPU    200.59s WALL (   10890 calls)

     Called by h_psi:
     h_psi:pot    :   7324.89s CPU   3984.24s WALL (   11460 calls)
     h_psi:calbec :    186.12s CPU     93.03s WALL (   11460 calls)
     vloc_psi     :   6977.48s CPU   3804.54s WALL (   11460 calls)
     add_vuspsi   :    159.08s CPU     86.48s WALL (   11460 calls)

     General routines
     calbec       :    185.92s CPU     92.93s WALL (   11460 calls)
     fft          :      0.18s CPU      0.12s WALL (       6 calls)
     fftw         :   6071.79s CPU   3357.72s WALL (  430732 calls)
     davcio       :      5.00s CPU      5.78s WALL (     101 calls)
 
     Parallel routines
     fft_scatt_xy :    793.55s CPU    325.82s WALL (  430738 calls)
     fft_scatt_yz :   1975.63s CPU   1122.03s WALL (  430738 calls)
 
     PWSCF        :     2h38m CPU        1h25m WALL

 
   This run was terminated on:  16: 4:44  18Jun2019            

=------------------------------------------------------------------------------=
   JOB DONE.
=------------------------------------------------------------------------------=

     Program BANDS v.6.2 starts on 18Jun2019 at 16: 5: 4 

     This program is part of the open-source Quantum ESPRESSO suite
     for quantum simulation of materials; please cite
         "P. Giannozzi et al., J. Phys.:Condens. Matter 21 395502 (2009);
         "P. Giannozzi et al., J. Phys.:Condens. Matter 29 465901 (2017);
          URL http://www.quantum-espresso.org", 
     in publications or presentations arising from this work. More details at
     http://www.quantum-espresso.org/quote

     Parallel version (MPI & OpenMP), running on     128 processor cores
     Number of MPI processes:                64
     Threads/MPI process:                     2

     MPI processes distributed on     2 nodes
     R & G space division:  proc/nbgrp/npool/nimage =      64

     Reading data from directory:
     ./cc.save/

     IMPORTANT: XC functional enforced from input :
     Exchange-correlation      = PZ ( 1  1  0  0 0 0)
     Any further DFT definition will be discarded
     Please, verify this is what you really want

 
     Parallelization info
     --------------------
     sticks:   dense  smooth     PW     G-vecs:    dense   smooth      PW
     Min         252     252     67                55162    55162    7571
     Max         253     253     68                55179    55179    7584
     Sum       16177   16177   4317              3530959  3530959  484893
 

     negative rho (up, down):  1.100E-04 0.000E+00
     high-symmetry point:  0.0000 0.0000 0.0000   x coordinate   0.0000
     high-symmetry point:  0.0000 2.6042 0.0000   x coordinate   2.6042

     Plottable bands (eV) written to file cc_bands.dat.gnu
     Bands written to file cc_bands.dat
 
     BANDS        :    16.28s CPU        13.64s WALL

 
   This run was terminated on:  16: 5:17  18Jun2019            

=------------------------------------------------------------------------------=
   JOB DONE.
=------------------------------------------------------------------------------=